21
 energy: -34.289343619433 gnorm: 0.000980106983 xtb: 6.6.0 (8843059)
O           -2.91584149240482        1.25303822580157        0.41295393138167
O           -2.05152396200709        0.17528269668619       -1.44448262316728
O            3.06462409375051       -0.61136969297565        0.85809027612682
N           -1.38586216966677       -1.81583585244574        0.18418481512556
N            3.23847545874576        0.23838464673592       -1.21196820794436
C            0.27285280629640       -0.18848862823883        0.96095027319652
C           -1.22688882110299       -0.48421898723935        0.78676076264777
C            1.02424042812464       -0.20204053206713       -0.36736710601530
C           -1.88299774808984        0.51787821790537       -0.12119266959303
C            2.52729834460111       -0.21329905962176       -0.15002972911760
H            0.38413058855613        0.78623413025554        1.43596243699292
H            0.71888129254233       -0.93439891892018        1.62162798611200
H           -1.70382306321563       -0.39156902543703        1.77576665897512
H            0.76933720374506       -1.11371294146423       -0.91413980311531
H            0.73625679757310        0.65476486060701       -0.97675690383073
H           -1.69478131341316       -0.72228765372292       -1.54368905343094
H           -2.34579706125402       -2.13026332643328        0.28683842051472
H            2.79899771818021        0.57005957913484       -2.05162885305878
H            4.24321379946479        0.24238876588219       -1.15678380198632
H           -3.41717805434613        1.62685452352520       -0.32161933771067
H           -0.78921484607962       -2.48480102796783        0.65922252789691
